<?xml version="1.0" encoding="utf-8"?>
<VTKFile type="StructuredGrid">
  <StructuredGrid WholeExtent="0 10 0 10 0 10">
    <Piece Extent="0 10 0 10 0 10">
      <PointData Scalars="image">
        <DataArray Name="image" type="Float64" NumberOfComponents="1" format="ascii">
	  1.00000000e+00
	  9.75528258e-01
	  9.04508497e-01
	  7.93892626e-01
	  6.54508497e-01
	  5.00000000e-01
	  3.45491503e-01
	  2.06107374e-01
	  9.54915028e-02
	  2.44717419e-02
	  3.74939946e-33
	  9.75528258e-01
	  9.51458398e-01
	  8.81620613e-01
	  7.72897458e-01
	  6.36006596e-01
	  4.84448560e-01
	  3.33181092e-01
	  1.97150066e-01
	  8.98210376e-02
	  2.18554492e-02
	  6.13772609e-05
	  9.04508497e-01
	  8.81620613e-01
	  8.15258741e-01
	  7.12100320e-01
	  5.82537168e-01
	  4.39645987e-01
	  2.97892090e-01
	  1.71694103e-01
	  7.39911771e-02
	  1.49540663e-02
	  9.67389188e-04
	  7.93892626e-01
	  7.72897458e-01
	  7.12100320e-01
	  6.17846427e-01
	  5.00000000e-01
	  3.70951843e-01
	  2.44370926e-01
	  1.33824111e-01
	  5.14013826e-02
	  6.48360265e-03
	  4.77592354e-03
	  6.54508497e-01
	  6.36006596e-01
	  5.82537168e-01
	  5.00000000e-01
	  3.97552295e-01
	  2.86666409e-01
	  1.79946183e-01
	  8.98210376e-02
	  2.72495363e-02
	  5.63546328e-04
	  1.45704276e-02
	  5.00000000e-01
	  4.84448560e-01
	  4.39645987e-01
	  3.70951843e-01
	  2.86666409e-01
	  1.97150066e-01
	  1.13719115e-01
	  4.74310777e-02
	  7.88418677e-03
	  2.15488936e-03
	  3.39837881e-02
	  3.45491503e-01
	  3.33181092e-01
	  2.97892090e-01
	  2.44370926e-01
	  1.79946183e-01
	  1.13719115e-01
	  5.55511212e-02
	  1.49540663e-02
	  3.74939946e-33
	  1.63656118e-02
	  6.66137075e-02
	  2.06107374e-01
	  1.97150066e-01
	  1.71694103e-01
	  1.33824111e-01
	  8.98210376e-02
	  4.74310777e-02
	  1.49540663e-02
	  2.49218086e-04
	  9.76569250e-03
	  4.77038690e-02
	  1.15400585e-01
	  9.54915028e-02
	  8.98210376e-02
	  7.39911771e-02
	  5.14013826e-02
	  2.72495363e-02
	  7.88418677e-03
	  3.74939946e-33
	  9.76569250e-03
	  4.19821288e-02
	  9.93663186e-02
	  1.82044884e-01
	  2.44717419e-02
	  2.18554492e-02
	  1.49540663e-02
	  6.48360265e-03
	  5.63546328e-04
	  2.15488936e-03
	  1.63656118e-02
	  4.77038690e-02
	  9.93663186e-02
	  1.72646724e-01
	  2.66538340e-01
	  3.74939946e-33
	  6.13772609e-05
	  9.67389188e-04
	  4.77592354e-03
	  1.45704276e-02
	  3.39837881e-02
	  6.66137075e-02
	  1.15400585e-01
	  1.82044884e-01
	  2.66538340e-01
	  3.66872329e-01
	  9.75528258e-01
	  9.51458398e-01
	  8.81620613e-01
	  7.72897458e-01
	  6.36006596e-01
	  4.84448560e-01
	  3.33181092e-01
	  1.97150066e-01
	  8.98210376e-02
	  2.18554492e-02
	  6.13772609e-05
	  9.51458398e-01
	  9.27786456e-01
	  8.59118922e-01
	  7.52269491e-01
	  6.17846427e-01
	  4.69207946e-01
	  3.21146415e-01
	  1.88430591e-01
	  8.43491301e-02
	  1.93984980e-02
	  2.44283232e-04
	  8.81620613e-01
	  8.59118922e-01
	  7.93892626e-01
	  6.92551760e-01
	  5.65381086e-01
	  4.25318094e-01
	  2.86666409e-01
	  1.63671629e-01
	  6.91002744e-02
	  1.29623527e-02
	  1.50398209e-03
	  7.72897458e-01
	  7.52269491e-01
	  6.92551760e-01
	  6.00024454e-01
	  4.84448560e-01
	  3.58080721e-01
	  2.34434235e-01
	  1.26909587e-01
	  4.74310777e-02
	  5.22570307e-03
	  5.86659035e-03
	  6.36006596e-01
	  6.17846427e-01
	  5.65381086e-01
	  4.84448560e-01
	  3.84107987e-01
	  2.75704401e-01
	  1.71694103e-01
	  8.43491301e-02
	  2.44717419e-02
	  2.49218086e-04
	  1.63656118e-02
	  4.84448560e-01
	  4.69207946e-01
	  4.25318094e-01
	  3.58080721e-01
	  2.75704401e-01
	  1.88430591e-01
	  1.07438035e-01
	  4.36379009e-02
	  6.48360265e-03
	  2.91834599e-03
	  3.65700605e-02
	  3.33181092e-01
	  3.21146415e-01
	  2.86666409e-01
	  2.34434235e-01
	  1.71694103e-01
	  1.07438035e-01
	  5.14013826e-02
	  1.29623527e-02
	  6.13772609e-05
	  1.82549164e-02
	  7.00052605e-02
	  1.97150066e-01
	  1.88430591e-01
	  1.63671629e-01
	  1.26909587e-01
	  8.43491301e-02
	  4.36379009e-02
	  1.29623527e-02
	  6.19941128e-05
	  1.12688440e-02
	  5.06772809e-02
	  1.19536870e-01
	  8.98210376e-02
	  8.43491301e-02
	  6.91002744e-02
	  4.74310777e-02
	  2.44717419e-02
	  6.48360265e-03
	  6.13772609e-05
	  1.12688440e-02
	  4.48050102e-02
	  1.03295853e-01
	  1.86794586e-01
	  2.18554492e-02
	  1.93984980e-02
	  1.29623527e-02
	  5.22570307e-03
	  2.49218086e-04
	  2.91834599e-03
	  1.82549164e-02
	  5.06772809e-02
	  1.03295853e-01
	  1.77328589e-01
	  2.71709352e-01
	  6.13772609e-05
	  2.44283232e-04
	  1.50398209e-03
	  5.86659035e-03
	  1.63656118e-02
	  3.65700605e-02
	  7.00052605e-02
	  1.19536870e-01
	  1.86794586e-01
	  2.71709352e-01
	  3.72226869e-01
	  9.04508497e-01
	  8.81620613e-01
	  8.15258741e-01
	  7.12100320e-01
	  5.82537168e-01
	  4.39645987e-01
	  2.97892090e-01
	  1.71694103e-01
	  7.39911771e-02
	  1.49540663e-02
	  9.67389188e-04
	  8.81620613e-01
	  8.59118922e-01
	  7.93892626e-01
	  6.92551760e-01
	  5.65381086e-01
	  4.25318094e-01
	  2.86666409e-01
	  1.63671629e-01
	  6.91002744e-02
	  1.29623527e-02
	  1.50398209e-03
	  8.15258741e-01
	  7.93892626e-01
	  7.32005009e-01
	  6.36006596e-01
	  5.15865602e-01
	  3.84107987e-01
	  2.54559585e-01
	  1.40954950e-01
	  5.55511212e-02
	  7.88418677e-03
	  3.79260225e-03
	  7.12100320e-01
	  6.92551760e-01
	  6.36006596e-01
	  5.48552749e-01
	  4.39645987e-01
	  3.21146415e-01
	  2.06107374e-01
	  1.07438035e-01
	  3.65738023e-02
	  2.28814162e-03
	  9.76569250e-03
	  5.82537168e-01
	  5.65381086e-01
	  5.15865602e-01
	  4.39645987e-01
	  3.45491503e-01
	  2.44370926e-01
	  1.48304721e-01
	  6.91002744e-02
	  1.70987455e-02
	  6.13772609e-05
	  2.23095484e-02
	  4.39645987e-01
	  4.25318094e-01
	  3.84107987e-01
	  3.21146415e-01
	  2.44370926e-01
	  1.63671629e-01
	  8.98210376e-02
	  3.32983615e-02
	  3.12995287e-03
	  5.86659035e-03
	  4.48050102e-02
	  2.97892090e-01
	  2.86666409e-01
	  2.54559585e-01
	  2.06107374e-01
	  1.48304721e-01
	  8.98210376e-02
	  4.00195653e-02
	  7.88418677e-03
	  9.67389188e-04
	  2.44717419e-02
	  8.05643268e-02
	  1.71694103e-01
	  1.63671629e-01
	  1.40954950e-01
	  1.07438035e-01
	  6.91002744e-02
	  3.32983615e-02
	  7.88418677e-03
	  2.44283232e-04
	  1.63656118e-02
	  6.00307909e-02
	  1.32233363e-01
	  7.39911771e-02
	  6.91002744e-02
	  5.55511212e-02
	  3.65738023e-02
	  1.70987455e-02
	  3.12995287e-03
	  9.67389188e-04
	  1.63656118e-02
	  5.37238350e-02
	  1.15400585e-01
	  2.01234063e-01
	  1.49540663e-02
	  1.29623527e-02
	  7.88418677e-03
	  2.28814162e-03
	  6.13772609e-05
	  5.86659035e-03
	  2.44717419e-02
	  6.00307909e-02
	  1.15400585e-01
	  1.91576683e-01
	  2.87319380e-01
	  9.67389188e-04
	  1.50398209e-03
	  3.79260225e-03
	  9.76569250e-03
	  2.23095484e-02
	  4.48050102e-02
	  8.05643268e-02
	  1.32233363e-01
	  2.01234063e-01
	  2.87319380e-01
	  3.88301988e-01
	  7.93892626e-01
	  7.72897458e-01
	  7.12100320e-01
	  6.17846427e-01
	  5.00000000e-01
	  3.70951843e-01
	  2.44370926e-01
	  1.33824111e-01
	  5.14013826e-02
	  6.48360265e-03
	  4.77592354e-03
	  7.72897458e-01
	  7.52269491e-01
	  6.92551760e-01
	  6.00024454e-01
	  4.84448560e-01
	  3.58080721e-01
	  2.34434235e-01
	  1.26909587e-01
	  4.74310777e-02
	  5.22570307e-03
	  5.86659035e-03
	  7.12100320e-01
	  6.92551760e-01
	  6.36006596e-01
	  5.48552749e-01
	  4.39645987e-01
	  3.21146415e-01
	  2.06107374e-01
	  1.07438035e-01
	  3.65738023e-02
	  2.28814162e-03
	  9.76569250e-03
	  6.17846427e-01
	  6.00024454e-01
	  5.48552749e-01
	  4.69207946e-01
	  3.70951843e-01
	  2.65003105e-01
	  1.63671629e-01
	  7.90733226e-02
	  2.18554492e-02
	  6.19941128e-05
	  1.82549164e-02
	  5.00000000e-01
	  4.84448560e-01
	  4.39645987e-01
	  3.70951843e-01
	  2.86666409e-01
	  1.97150066e-01
	  1.13719115e-01
	  4.74310777e-02
	  7.88418677e-03
	  2.15488936e-03
	  3.39837881e-02
	  3.70951843e-01
	  3.58080721e-01
	  3.21146415e-01
	  2.65003105e-01
	  1.97150066e-01
	  1.26909587e-01
	  6.43982148e-02
	  1.93984980e-02
	  2.49218086e-04
	  1.28709661e-02
	  6.00307909e-02
	  2.44370926e-01
	  2.34434235e-01
	  2.06107374e-01
	  1.63671629e-01
	  1.13719115e-01
	  6.43982148e-02
	  2.44717419e-02
	  2.28814162e-03
	  4.77592354e-03
	  3.65700605e-02
	  9.93663186e-02
	  1.33824111e-01
	  1.26909587e-01
	  1.07438035e-01
	  7.90733226e-02
	  4.74310777e-02
	  1.93984980e-02
	  2.28814162e-03
	  2.91834599e-03
	  2.67217877e-02
	  7.69818855e-02
	  1.54284396e-01
	  5.14013826e-02
	  4.74310777e-02
	  3.65738023e-02
	  2.18554492e-02
	  7.88418677e-03
	  2.49218086e-04
	  4.77592354e-03
	  2.67217877e-02
	  7.00052605e-02
	  1.36557560e-01
	  2.25875541e-01
	  6.48360265e-03
	  5.22570307e-03
	  2.28814162e-03
	  6.19941128e-05
	  2.15488936e-03
	  1.28709661e-02
	  3.65700605e-02
	  7.69818855e-02
	  1.36557560e-01
	  2.15938380e-01
	  3.13610382e-01
	  4.77592354e-03
	  5.86659035e-03
	  9.76569250e-03
	  1.82549164e-02
	  3.39837881e-02
	  6.00307909e-02
	  9.93663186e-02
	  1.54284396e-01
	  2.25875541e-01
	  3.13610382e-01
	  4.15092881e-01
	  6.54508497e-01
	  6.36006596e-01
	  5.82537168e-01
	  5.00000000e-01
	  3.97552295e-01
	  2.86666409e-01
	  1.79946183e-01
	  8.98210376e-02
	  2.72495363e-02
	  5.63546328e-04
	  1.45704276e-02
	  6.36006596e-01
	  6.17846427e-01
	  5.65381086e-01
	  4.84448560e-01
	  3.84107987e-01
	  2.75704401e-01
	  1.71694103e-01
	  8.43491301e-02
	  2.44717419e-02
	  2.49218086e-04
	  1.63656118e-02
	  5.82537168e-01
	  5.65381086e-01
	  5.15865602e-01
	  4.39645987e-01
	  3.45491503e-01
	  2.44370926e-01
	  1.48304721e-01
	  6.91002744e-02
	  1.70987455e-02
	  6.13772609e-05
	  2.23095484e-02
	  5.00000000e-01
	  4.84448560e-01
	  4.39645987e-01
	  3.70951843e-01
	  2.86666409e-01
	  1.97150066e-01
	  1.13719115e-01
	  4.74310777e-02
	  7.88418677e-03
	  2.15488936e-03
	  3.39837881e-02
	  3.97552295e-01
	  3.84107987e-01
	  3.45491503e-01
	  2.86666409e-01
	  2.15305297e-01
	  1.40954950e-01
	  7.39911771e-02
	  2.44717419e-02
	  1.00686926e-03
	  9.76569250e-03
	  5.37238350e-02
	  2.86666409e-01
	  2.75704401e-01
	  2.44370926e-01
	  1.97150066e-01
	  1.40954950e-01
	  8.43491301e-02
	  3.65738023e-02
	  6.48360265e-03
	  1.50398209e-03
	  2.67217877e-02
	  8.42077875e-02
	  1.79946183e-01
	  1.71694103e-01
	  1.48304721e-01
	  1.13719115e-01
	  7.39911771e-02
	  3.65738023e-02
	  9.42947759e-03
	  6.13772609e-05
	  1.45704276e-02
	  5.68421334e-02
	  1.27954419e-01
	  8.98210376e-02
	  8.43491301e-02
	  6.91002744e-02
	  4.74310777e-02
	  2.44717419e-02
	  6.48360265e-03
	  6.13772609e-05
	  1.12688440e-02
	  4.48050102e-02
	  1.03295853e-01
	  1.86794586e-01
	  2.72495363e-02
	  2.44717419e-02
	  1.70987455e-02
	  7.88418677e-03
	  1.00686926e-03
	  1.50398209e-03
	  1.45704276e-02
	  4.48050102e-02
	  9.54915028e-02
	  1.68000323e-01
	  2.61384895e-01
	  5.63546328e-04
	  2.49218086e-04
	  6.13772609e-05
	  2.15488936e-03
	  9.76569250e-03
	  2.67217877e-02
	  5.68421334e-02
	  1.03295853e-01
	  1.68000323e-01
	  2.51134125e-01
	  3.50829718e-01
	  1.45704276e-02
	  1.63656118e-02
	  2.23095484e-02
	  3.39837881e-02
	  5.37238350e-02
	  8.42077875e-02
	  1.27954419e-01
	  1.86794586e-01
	  2.61384895e-01
	  3.50829718e-01
	  4.52467093e-01
	  5.00000000e-01
	  4.84448560e-01
	  4.39645987e-01
	  3.70951843e-01
	  2.86666409e-01
	  1.97150066e-01
	  1.13719115e-01
	  4.74310777e-02
	  7.88418677e-03
	  2.15488936e-03
	  3.39837881e-02
	  4.84448560e-01
	  4.69207946e-01
	  4.25318094e-01
	  3.58080721e-01
	  2.75704401e-01
	  1.88430591e-01
	  1.07438035e-01
	  4.36379009e-02
	  6.48360265e-03
	  2.91834599e-03
	  3.65700605e-02
	  4.39645987e-01
	  4.25318094e-01
	  3.84107987e-01
	  3.21146415e-01
	  2.44370926e-01
	  1.63671629e-01
	  8.98210376e-02
	  3.32983615e-02
	  3.12995287e-03
	  5.86659035e-03
	  4.48050102e-02
	  3.70951843e-01
	  3.58080721e-01
	  3.21146415e-01
	  2.65003105e-01
	  1.97150066e-01
	  1.26909587e-01
	  6.43982148e-02
	  1.93984980e-02
	  2.49218086e-04
	  1.28709661e-02
	  6.00307909e-02
	  2.86666409e-01
	  2.75704401e-01
	  2.44370926e-01
	  1.97150066e-01
	  1.40954950e-01
	  8.43491301e-02
	  3.65738023e-02
	  6.48360265e-03
	  1.50398209e-03
	  2.67217877e-02
	  8.42077875e-02
	  1.97150066e-01
	  1.88430591e-01
	  1.63671629e-01
	  1.26909587e-01
	  8.43491301e-02
	  4.36379009e-02
	  1.29623527e-02
	  6.19941128e-05
	  1.12688440e-02
	  5.06772809e-02
	  1.19536870e-01
	  1.13719115e-01
	  1.07438035e-01
	  8.98210376e-02
	  6.43982148e-02
	  3.65738023e-02
	  1.29623527e-02
	  5.63546328e-04
	  5.86659035e-03
	  3.39837881e-02
	  8.79109832e-02
	  1.68000323e-01
	  4.74310777e-02
	  4.36379009e-02
	  3.32983615e-02
	  1.93984980e-02
	  6.48360265e-03
	  6.19941128e-05
	  5.86659035e-03
	  2.90581540e-02
	  7.34617604e-02
	  1.40925876e-01
	  2.30881585e-01
	  7.88418677e-03
	  6.48360265e-03
	  3.12995287e-03
	  2.49218086e-04
	  1.50398209e-03
	  1.12688440e-02
	  3.39837881e-02
	  7.34617604e-02
	  1.32233363e-01
	  2.11009133e-01
	  3.08328481e-01
	  2.15488936e-03
	  2.91834599e-03
	  5.86659035e-03
	  1.28709661e-02
	  2.67217877e-02
	  5.06772809e-02
	  8.79109832e-02
	  1.40925876e-01
	  2.11009133e-01
	  2.97798655e-01
	  3.99021706e-01
	  3.39837881e-02
	  3.65700605e-02
	  4.48050102e-02
	  6.00307909e-02
	  8.42077875e-02
	  1.19536870e-01
	  1.68000323e-01
	  2.30881585e-01
	  3.08328481e-01
	  3.99021706e-01
	  5.00000000e-01
	  3.45491503e-01
	  3.33181092e-01
	  2.97892090e-01
	  2.44370926e-01
	  1.79946183e-01
	  1.13719115e-01
	  5.55511212e-02
	  1.49540663e-02
	  3.74939946e-33
	  1.63656118e-02
	  6.66137075e-02
	  3.33181092e-01
	  3.21146415e-01
	  2.86666409e-01
	  2.34434235e-01
	  1.71694103e-01
	  1.07438035e-01
	  5.14013826e-02
	  1.29623527e-02
	  6.13772609e-05
	  1.82549164e-02
	  7.00052605e-02
	  2.97892090e-01
	  2.86666409e-01
	  2.54559585e-01
	  2.06107374e-01
	  1.48304721e-01
	  8.98210376e-02
	  4.00195653e-02
	  7.88418677e-03
	  9.67389188e-04
	  2.44717419e-02
	  8.05643268e-02
	  2.44370926e-01
	  2.34434235e-01
	  2.06107374e-01
	  1.63671629e-01
	  1.13719115e-01
	  6.43982148e-02
	  2.44717419e-02
	  2.28814162e-03
	  4.77592354e-03
	  3.65700605e-02
	  9.93663186e-02
	  1.79946183e-01
	  1.71694103e-01
	  1.48304721e-01
	  1.13719115e-01
	  7.39911771e-02
	  3.65738023e-02
	  9.42947759e-03
	  6.13772609e-05
	  1.45704276e-02
	  5.68421334e-02
	  1.27954419e-01
	  1.13719115e-01
	  1.07438035e-01
	  8.98210376e-02
	  6.43982148e-02
	  3.65738023e-02
	  1.29623527e-02
	  5.63546328e-04
	  5.86659035e-03
	  3.39837881e-02
	  8.79109832e-02
	  1.68000323e-01
	  5.55511212e-02
	  5.14013826e-02
	  4.00195653e-02
	  2.44717419e-02
	  9.42947759e-03
	  5.63546328e-04
	  3.79260225e-03
	  2.44717419e-02
	  6.66137075e-02
	  1.32233363e-01
	  2.20894163e-01
	  1.49540663e-02
	  1.29623527e-02
	  7.88418677e-03
	  2.28814162e-03
	  6.13772609e-05
	  5.86659035e-03
	  2.44717419e-02
	  6.00307909e-02
	  1.15400585e-01
	  1.91576683e-01
	  2.87319380e-01
	  3.74939946e-33
	  6.13772609e-05
	  9.67389188e-04
	  4.77592354e-03
	  1.45704276e-02
	  3.39837881e-02
	  6.66137075e-02
	  1.15400585e-01
	  1.82044884e-01
	  2.66538340e-01
	  3.66872329e-01
	  1.63656118e-02
	  1.82549164e-02
	  2.44717419e-02
	  3.65700605e-02
	  5.68421334e-02
	  8.79109832e-02
	  1.32233363e-01
	  1.91576683e-01
	  2.66538340e-01
	  3.56173062e-01
	  4.57783313e-01
	  6.66137075e-02
	  7.00052605e-02
	  8.05643268e-02
	  9.93663186e-02
	  1.27954419e-01
	  1.68000323e-01
	  2.20894163e-01
	  2.87319380e-01
	  3.66872329e-01
	  4.57783313e-01
	  5.56785826e-01
	  2.06107374e-01
	  1.97150066e-01
	  1.71694103e-01
	  1.33824111e-01
	  8.98210376e-02
	  4.74310777e-02
	  1.49540663e-02
	  2.49218086e-04
	  9.76569250e-03
	  4.77038690e-02
	  1.15400585e-01
	  1.97150066e-01
	  1.88430591e-01
	  1.63671629e-01
	  1.26909587e-01
	  8.43491301e-02
	  4.36379009e-02
	  1.29623527e-02
	  6.19941128e-05
	  1.12688440e-02
	  5.06772809e-02
	  1.19536870e-01
	  1.71694103e-01
	  1.63671629e-01
	  1.40954950e-01
	  1.07438035e-01
	  6.91002744e-02
	  3.32983615e-02
	  7.88418677e-03
	  2.44283232e-04
	  1.63656118e-02
	  6.00307909e-02
	  1.32233363e-01
	  1.33824111e-01
	  1.26909587e-01
	  1.07438035e-01
	  7.90733226e-02
	  4.74310777e-02
	  1.93984980e-02
	  2.28814162e-03
	  2.91834599e-03
	  2.67217877e-02
	  7.69818855e-02
	  1.54284396e-01
	  8.98210376e-02
	  8.43491301e-02
	  6.91002744e-02
	  4.74310777e-02
	  2.44717419e-02
	  6.48360265e-03
	  6.13772609e-05
	  1.12688440e-02
	  4.48050102e-02
	  1.03295853e-01
	  1.86794586e-01
	  4.74310777e-02
	  4.36379009e-02
	  3.32983615e-02
	  1.93984980e-02
	  6.48360265e-03
	  6.19941128e-05
	  5.86659035e-03
	  2.90581540e-02
	  7.34617604e-02
	  1.40925876e-01
	  2.30881585e-01
	  1.49540663e-02
	  1.29623527e-02
	  7.88418677e-03
	  2.28814162e-03
	  6.13772609e-05
	  5.86659035e-03
	  2.44717419e-02
	  6.00307909e-02
	  1.15400585e-01
	  1.91576683e-01
	  2.87319380e-01
	  2.49218086e-04
	  6.19941128e-05
	  2.44283232e-04
	  2.91834599e-03
	  1.12688440e-02
	  2.90581540e-02
	  6.00307909e-02
	  1.07278882e-01
	  1.72646724e-01
	  2.56249868e-01
	  3.56173062e-01
	  9.76569250e-03
	  1.12688440e-02
	  1.63656118e-02
	  2.67217877e-02
	  4.48050102e-02
	  7.34617604e-02
	  1.15400585e-01
	  1.72646724e-01
	  2.46038538e-01
	  3.34833314e-01
	  4.36479393e-01
	  4.77038690e-02
	  5.06772809e-02
	  6.00307909e-02
	  7.69818855e-02
	  1.03295853e-01
	  1.40925876e-01
	  1.91576683e-01
	  2.56249868e-01
	  3.34833314e-01
	  4.25794118e-01
	  5.26024324e-01
	  1.15400585e-01
	  1.19536870e-01
	  1.32233363e-01
	  1.54284396e-01
	  1.86794586e-01
	  2.30881585e-01
	  2.87319380e-01
	  3.56173062e-01
	  4.36479393e-01
	  5.26024324e-01
	  6.21259055e-01
	  9.54915028e-02
	  8.98210376e-02
	  7.39911771e-02
	  5.14013826e-02
	  2.72495363e-02
	  7.88418677e-03
	  3.74939946e-33
	  9.76569250e-03
	  4.19821288e-02
	  9.93663186e-02
	  1.82044884e-01
	  8.98210376e-02
	  8.43491301e-02
	  6.91002744e-02
	  4.74310777e-02
	  2.44717419e-02
	  6.48360265e-03
	  6.13772609e-05
	  1.12688440e-02
	  4.48050102e-02
	  1.03295853e-01
	  1.86794586e-01
	  7.39911771e-02
	  6.91002744e-02
	  5.55511212e-02
	  3.65738023e-02
	  1.70987455e-02
	  3.12995287e-03
	  9.67389188e-04
	  1.63656118e-02
	  5.37238350e-02
	  1.15400585e-01
	  2.01234063e-01
	  5.14013826e-02
	  4.74310777e-02
	  3.65738023e-02
	  2.18554492e-02
	  7.88418677e-03
	  2.49218086e-04
	  4.77592354e-03
	  2.67217877e-02
	  7.00052605e-02
	  1.36557560e-01
	  2.25875541e-01
	  2.72495363e-02
	  2.44717419e-02
	  1.70987455e-02
	  7.88418677e-03
	  1.00686926e-03
	  1.50398209e-03
	  1.45704276e-02
	  4.48050102e-02
	  9.54915028e-02
	  1.68000323e-01
	  2.61384895e-01
	  7.88418677e-03
	  6.48360265e-03
	  3.12995287e-03
	  2.49218086e-04
	  1.50398209e-03
	  1.12688440e-02
	  3.39837881e-02
	  7.34617604e-02
	  1.32233363e-01
	  2.11009133e-01
	  3.08328481e-01
	  3.74939946e-33
	  6.13772609e-05
	  9.67389188e-04
	  4.77592354e-03
	  1.45704276e-02
	  3.39837881e-02
	  6.66137075e-02
	  1.15400585e-01
	  1.82044884e-01
	  2.66538340e-01
	  3.66872329e-01
	  9.76569250e-03
	  1.12688440e-02
	  1.63656118e-02
	  2.67217877e-02
	  4.48050102e-02
	  7.34617604e-02
	  1.15400585e-01
	  1.72646724e-01
	  2.46038538e-01
	  3.34833314e-01
	  4.36479393e-01
	  4.19821288e-02
	  4.48050102e-02
	  5.37238350e-02
	  7.00052605e-02
	  9.54915028e-02
	  1.32233363e-01
	  1.82044884e-01
	  2.46038538e-01
	  3.24204296e-01
	  4.15092881e-01
	  5.15653391e-01
	  9.93663186e-02
	  1.03295853e-01
	  1.15400585e-01
	  1.36557560e-01
	  1.68000323e-01
	  2.11009133e-01
	  2.66538340e-01
	  3.34833314e-01
	  4.15092881e-01
	  5.05230088e-01
	  6.01774441e-01
	  1.82044884e-01
	  1.86794586e-01
	  2.01234063e-01
	  2.25875541e-01
	  2.61384895e-01
	  3.08328481e-01
	  3.66872329e-01
	  4.36479393e-01
	  5.15653391e-01
	  6.01774441e-01
	  6.91062583e-01
	  2.44717419e-02
	  2.18554492e-02
	  1.49540663e-02
	  6.48360265e-03
	  5.63546328e-04
	  2.15488936e-03
	  1.63656118e-02
	  4.77038690e-02
	  9.93663186e-02
	  1.72646724e-01
	  2.66538340e-01
	  2.18554492e-02
	  1.93984980e-02
	  1.29623527e-02
	  5.22570307e-03
	  2.49218086e-04
	  2.91834599e-03
	  1.82549164e-02
	  5.06772809e-02
	  1.03295853e-01
	  1.77328589e-01
	  2.71709352e-01
	  1.49540663e-02
	  1.29623527e-02
	  7.88418677e-03
	  2.28814162e-03
	  6.13772609e-05
	  5.86659035e-03
	  2.44717419e-02
	  6.00307909e-02
	  1.15400585e-01
	  1.91576683e-01
	  2.87319380e-01
	  6.48360265e-03
	  5.22570307e-03
	  2.28814162e-03
	  6.19941128e-05
	  2.15488936e-03
	  1.28709661e-02
	  3.65700605e-02
	  7.69818855e-02
	  1.36557560e-01
	  2.15938380e-01
	  3.13610382e-01
	  5.63546328e-04
	  2.49218086e-04
	  6.13772609e-05
	  2.15488936e-03
	  9.76569250e-03
	  2.67217877e-02
	  5.68421334e-02
	  1.03295853e-01
	  1.68000323e-01
	  2.51134125e-01
	  3.50829718e-01
	  2.15488936e-03
	  2.91834599e-03
	  5.86659035e-03
	  1.28709661e-02
	  2.67217877e-02
	  5.06772809e-02
	  8.79109832e-02
	  1.40925876e-01
	  2.11009133e-01
	  2.97798655e-01
	  3.99021706e-01
	  1.63656118e-02
	  1.82549164e-02
	  2.44717419e-02
	  3.65700605e-02
	  5.68421334e-02
	  8.79109832e-02
	  1.32233363e-01
	  1.91576683e-01
	  2.66538340e-01
	  3.56173062e-01
	  4.57783313e-01
	  4.77038690e-02
	  5.06772809e-02
	  6.00307909e-02
	  7.69818855e-02
	  1.03295853e-01
	  1.40925876e-01
	  1.91576683e-01
	  2.56249868e-01
	  3.34833314e-01
	  4.25794118e-01
	  5.26024324e-01
	  9.93663186e-02
	  1.03295853e-01
	  1.15400585e-01
	  1.36557560e-01
	  1.68000323e-01
	  2.11009133e-01
	  2.66538340e-01
	  3.34833314e-01
	  4.15092881e-01
	  5.05230088e-01
	  6.01774441e-01
	  1.72646724e-01
	  1.77328589e-01
	  1.91576683e-01
	  2.15938380e-01
	  2.51134125e-01
	  2.97798655e-01
	  3.56173062e-01
	  4.25794118e-01
	  5.05230088e-01
	  5.91909033e-01
	  6.82076393e-01
	  2.66538340e-01
	  2.71709352e-01
	  2.87319380e-01
	  3.13610382e-01
	  3.50829718e-01
	  3.99021706e-01
	  4.57783313e-01
	  5.26024324e-01
	  6.01774441e-01
	  6.82076393e-01
	  7.62995516e-01
	  3.74939946e-33
	  6.13772609e-05
	  9.67389188e-04
	  4.77592354e-03
	  1.45704276e-02
	  3.39837881e-02
	  6.66137075e-02
	  1.15400585e-01
	  1.82044884e-01
	  2.66538340e-01
	  3.66872329e-01
	  6.13772609e-05
	  2.44283232e-04
	  1.50398209e-03
	  5.86659035e-03
	  1.63656118e-02
	  3.65700605e-02
	  7.00052605e-02
	  1.19536870e-01
	  1.86794586e-01
	  2.71709352e-01
	  3.72226869e-01
	  9.67389188e-04
	  1.50398209e-03
	  3.79260225e-03
	  9.76569250e-03
	  2.23095484e-02
	  4.48050102e-02
	  8.05643268e-02
	  1.32233363e-01
	  2.01234063e-01
	  2.87319380e-01
	  3.88301988e-01
	  4.77592354e-03
	  5.86659035e-03
	  9.76569250e-03
	  1.82549164e-02
	  3.39837881e-02
	  6.00307909e-02
	  9.93663186e-02
	  1.54284396e-01
	  2.25875541e-01
	  3.13610382e-01
	  4.15092881e-01
	  1.45704276e-02
	  1.63656118e-02
	  2.23095484e-02
	  3.39837881e-02
	  5.37238350e-02
	  8.42077875e-02
	  1.27954419e-01
	  1.86794586e-01
	  2.61384895e-01
	  3.50829718e-01
	  4.52467093e-01
	  3.39837881e-02
	  3.65700605e-02
	  4.48050102e-02
	  6.00307909e-02
	  8.42077875e-02
	  1.19536870e-01
	  1.68000323e-01
	  2.30881585e-01
	  3.08328481e-01
	  3.99021706e-01
	  5.00000000e-01
	  6.66137075e-02
	  7.00052605e-02
	  8.05643268e-02
	  9.93663186e-02
	  1.27954419e-01
	  1.68000323e-01
	  2.20894163e-01
	  2.87319380e-01
	  3.66872329e-01
	  4.57783313e-01
	  5.56785826e-01
	  1.15400585e-01
	  1.19536870e-01
	  1.32233363e-01
	  1.54284396e-01
	  1.86794586e-01
	  2.30881585e-01
	  2.87319380e-01
	  3.56173062e-01
	  4.36479393e-01
	  5.26024324e-01
	  6.21259055e-01
	  1.82044884e-01
	  1.86794586e-01
	  2.01234063e-01
	  2.25875541e-01
	  2.61384895e-01
	  3.08328481e-01
	  3.66872329e-01
	  4.36479393e-01
	  5.15653391e-01
	  6.01774441e-01
	  6.91062583e-01
	  2.66538340e-01
	  2.71709352e-01
	  2.87319380e-01
	  3.13610382e-01
	  3.50829718e-01
	  3.99021706e-01
	  4.57783313e-01
	  5.26024324e-01
	  6.01774441e-01
	  6.82076393e-01
	  7.62995516e-01
	  3.66872329e-01
	  3.72226869e-01
	  3.88301988e-01
	  4.15092881e-01
	  4.52467093e-01
	  5.00000000e-01
	  5.56785826e-01
	  6.21259055e-01
	  6.91062583e-01
	  7.62995516e-01
	  8.33065462e-01
	</DataArray>
      </PointData>
      <Points>
        <DataArray Name="image" type="Float64" NumberOfComponents="3" format="ascii">
	  0.00000000e+00  0.00000000e+00  0.00000000e+00
	  1.00000000e-01  0.00000000e+00  0.00000000e+00
	  2.00000000e-01  0.00000000e+00  0.00000000e+00
	  3.00000000e-01  0.00000000e+00  0.00000000e+00
	  4.00000000e-01  0.00000000e+00  0.00000000e+00
	  5.00000000e-01  0.00000000e+00  0.00000000e+00
	  6.00000000e-01  0.00000000e+00  0.00000000e+00
	  7.00000000e-01  0.00000000e+00  0.00000000e+00
	  8.00000000e-01  0.00000000e+00  0.00000000e+00
	  9.00000000e-01  0.00000000e+00  0.00000000e+00
	  1.00000000e+00  0.00000000e+00  0.00000000e+00
	  0.00000000e+00  1.00000000e-01  0.00000000e+00
	  1.00000000e-01  1.00000000e-01  0.00000000e+00
	  2.00000000e-01  1.00000000e-01  0.00000000e+00
	  3.00000000e-01  1.00000000e-01  0.00000000e+00
	  4.00000000e-01  1.00000000e-01  0.00000000e+00
	  5.00000000e-01  1.00000000e-01  0.00000000e+00
	  6.00000000e-01  1.00000000e-01  0.00000000e+00
	  7.00000000e-01  1.00000000e-01  0.00000000e+00
	  8.00000000e-01  1.00000000e-01  0.00000000e+00
	  9.00000000e-01  1.00000000e-01  0.00000000e+00
	  1.00000000e+00  1.00000000e-01  0.00000000e+00
	  0.00000000e+00  2.00000000e-01  0.00000000e+00
	  1.00000000e-01  2.00000000e-01  0.00000000e+00
	  2.00000000e-01  2.00000000e-01  0.00000000e+00
	  3.00000000e-01  2.00000000e-01  0.00000000e+00
	  4.00000000e-01  2.00000000e-01  0.00000000e+00
	  5.00000000e-01  2.00000000e-01  0.00000000e+00
	  6.00000000e-01  2.00000000e-01  0.00000000e+00
	  7.00000000e-01  2.00000000e-01  0.00000000e+00
	  8.00000000e-01  2.00000000e-01  0.00000000e+00
	  9.00000000e-01  2.00000000e-01  0.00000000e+00
	  1.00000000e+00  2.00000000e-01  0.00000000e+00
	  0.00000000e+00  3.00000000e-01  0.00000000e+00
	  1.00000000e-01  3.00000000e-01  0.00000000e+00
	  2.00000000e-01  3.00000000e-01  0.00000000e+00
	  3.00000000e-01  3.00000000e-01  0.00000000e+00
	  4.00000000e-01  3.00000000e-01  0.00000000e+00
	  5.00000000e-01  3.00000000e-01  0.00000000e+00
	  6.00000000e-01  3.00000000e-01  0.00000000e+00
	  7.00000000e-01  3.00000000e-01  0.00000000e+00
	  8.00000000e-01  3.00000000e-01  0.00000000e+00
	  9.00000000e-01  3.00000000e-01  0.00000000e+00
	  1.00000000e+00  3.00000000e-01  0.00000000e+00
	  0.00000000e+00  4.00000000e-01  0.00000000e+00
	  1.00000000e-01  4.00000000e-01  0.00000000e+00
	  2.00000000e-01  4.00000000e-01  0.00000000e+00
	  3.00000000e-01  4.00000000e-01  0.00000000e+00
	  4.00000000e-01  4.00000000e-01  0.00000000e+00
	  5.00000000e-01  4.00000000e-01  0.00000000e+00
	  6.00000000e-01  4.00000000e-01  0.00000000e+00
	  7.00000000e-01  4.00000000e-01  0.00000000e+00
	  8.00000000e-01  4.00000000e-01  0.00000000e+00
	  9.00000000e-01  4.00000000e-01  0.00000000e+00
	  1.00000000e+00  4.00000000e-01  0.00000000e+00
	  0.00000000e+00  5.00000000e-01  0.00000000e+00
	  1.00000000e-01  5.00000000e-01  0.00000000e+00
	  2.00000000e-01  5.00000000e-01  0.00000000e+00
	  3.00000000e-01  5.00000000e-01  0.00000000e+00
	  4.00000000e-01  5.00000000e-01  0.00000000e+00
	  5.00000000e-01  5.00000000e-01  0.00000000e+00
	  6.00000000e-01  5.00000000e-01  0.00000000e+00
	  7.00000000e-01  5.00000000e-01  0.00000000e+00
	  8.00000000e-01  5.00000000e-01  0.00000000e+00
	  9.00000000e-01  5.00000000e-01  0.00000000e+00
	  1.00000000e+00  5.00000000e-01  0.00000000e+00
	  0.00000000e+00  6.00000000e-01  0.00000000e+00
	  1.00000000e-01  6.00000000e-01  0.00000000e+00
	  2.00000000e-01  6.00000000e-01  0.00000000e+00
	  3.00000000e-01  6.00000000e-01  0.00000000e+00
	  4.00000000e-01  6.00000000e-01  0.00000000e+00
	  5.00000000e-01  6.00000000e-01  0.00000000e+00
	  6.00000000e-01  6.00000000e-01  0.00000000e+00
	  7.00000000e-01  6.00000000e-01  0.00000000e+00
	  8.00000000e-01  6.00000000e-01  0.00000000e+00
	  9.00000000e-01  6.00000000e-01  0.00000000e+00
	  1.00000000e+00  6.00000000e-01  0.00000000e+00
	  0.00000000e+00  7.00000000e-01  0.00000000e+00
	  1.00000000e-01  7.00000000e-01  0.00000000e+00
	  2.00000000e-01  7.00000000e-01  0.00000000e+00
	  3.00000000e-01  7.00000000e-01  0.00000000e+00
	  4.00000000e-01  7.00000000e-01  0.00000000e+00
	  5.00000000e-01  7.00000000e-01  0.00000000e+00
	  6.00000000e-01  7.00000000e-01  0.00000000e+00
	  7.00000000e-01  7.00000000e-01  0.00000000e+00
	  8.00000000e-01  7.00000000e-01  0.00000000e+00
	  9.00000000e-01  7.00000000e-01  0.00000000e+00
	  1.00000000e+00  7.00000000e-01  0.00000000e+00
	  0.00000000e+00  8.00000000e-01  0.00000000e+00
	  1.00000000e-01  8.00000000e-01  0.00000000e+00
	  2.00000000e-01  8.00000000e-01  0.00000000e+00
	  3.00000000e-01  8.00000000e-01  0.00000000e+00
	  4.00000000e-01  8.00000000e-01  0.00000000e+00
	  5.00000000e-01  8.00000000e-01  0.00000000e+00
	  6.00000000e-01  8.00000000e-01  0.00000000e+00
	  7.00000000e-01  8.00000000e-01  0.00000000e+00
	  8.00000000e-01  8.00000000e-01  0.00000000e+00
	  9.00000000e-01  8.00000000e-01  0.00000000e+00
	  1.00000000e+00  8.00000000e-01  0.00000000e+00
	  0.00000000e+00  9.00000000e-01  0.00000000e+00
	  1.00000000e-01  9.00000000e-01  0.00000000e+00
	  2.00000000e-01  9.00000000e-01  0.00000000e+00
	  3.00000000e-01  9.00000000e-01  0.00000000e+00
	  4.00000000e-01  9.00000000e-01  0.00000000e+00
	  5.00000000e-01  9.00000000e-01  0.00000000e+00
	  6.00000000e-01  9.00000000e-01  0.00000000e+00
	  7.00000000e-01  9.00000000e-01  0.00000000e+00
	  8.00000000e-01  9.00000000e-01  0.00000000e+00
	  9.00000000e-01  9.00000000e-01  0.00000000e+00
	  1.00000000e+00  9.00000000e-01  0.00000000e+00
	  0.00000000e+00  1.00000000e+00  0.00000000e+00
	  1.00000000e-01  1.00000000e+00  0.00000000e+00